# Journals
https://pubs.acs.org/action/showFeed?type=axatoc&feed=rss&jc=jpcbfk "journals"
https://pubs.acs.org/action/showFeed?type=axatoc&feed=rss&jc=jcisd8 "journals"
https://pubs.acs.org/action/showFeed?type=axatoc&feed=rss&jc=jctcce "journals"

# Github
https://github.com/pyscf/pyscf/commits.atom "repo"
https://github.com/pyscf/pyscf-forge/commits.atom "repo"
https://github.com/Molcas/OpenMolcas/commits.atom "repo"
