# Journals
http://feeds.feedburner.com/acs/jcisd8 "journals"
http://feeds.feedburner.com/acs/jpcafh "journals"
http://feeds.feedburner.com/acs/jpclcd "journals"

# Github
https://github.com/pyscf/pyscf/commits.atom "repo"
https://github.com/pyscf/pyscf-forge/commits.atom "repo"
https://github.com/Molcas/OpenMolcas/commits.atom "repo"
